SPECGRID
10 10 5 1 F
/

COORD
     0.000000     0.000000     0.025000     0.000000     0.000000     0.275000
     0.090000     0.000000     0.003914     0.100000     0.000000     0.251734
     0.180000     0.000000    -0.012823     0.200000     0.000000     0.234561
     0.270000     0.000000    -0.020672     0.300000     0.000000     0.229030
     0.360000     0.000000    -0.018250     0.400000     0.000000     0.235683
     0.450000     0.000000    -0.007677     0.500000     0.000000     0.250000
     0.560000     0.000000     0.009120     0.600000     0.000000     0.264317
     0.670000     0.000000     0.020135     0.700000     0.000000     0.270970
     0.780000     0.000000     0.017573     0.800000     0.000000     0.265439
     0.890000     0.000000     0.000381     0.900000     0.000000     0.248266
     1.000000     0.000000    -0.025000     1.000000     0.000000     0.225000
     0.000000     0.100000     0.013412     0.000000     0.100000     0.263412
     0.090000     0.100000    -0.004887     0.100000     0.100000     0.243438
     0.180000     0.100000    -0.016096     0.200000     0.100000     0.232725
     0.270000     0.100000    -0.017398     0.300000     0.100000     0.234356
     0.360000     0.100000    -0.009449     0.400000     0.100000     0.246137
     0.450000     0.100000     0.003911     0.500000     0.100000     0.261588
     0.560000     0.100000     0.019219     0.600000     0.100000     0.272613
     0.670000     0.100000     0.024110     0.700000     0.100000     0.272805
     0.780000     0.100000     0.013599     0.800000     0.100000     0.260113
     0.890000     0.100000    -0.009717     0.900000     0.100000     0.237812
     1.000000     0.100000    -0.036588     1.000000     0.100000     0.213412
     0.000000     0.200000     0.002958     0.000000     0.200000     0.252958
     0.090000     0.200000    -0.010859     0.100000     0.200000     0.238112
     0.180000     0.200000    -0.015728     0.200000     0.200000     0.234561
     0.270000     0.200000    -0.010804     0.300000     0.200000     0.242653
     0.360000     0.200000     0.001319     0.400000     0.200000     0.257725
     0.450000     0.200000     0.015499     0.500000     0.200000     0.272042
     0.560000     0.200000     0.026978     0.600000     0.200000     0.277939
     0.670000     0.200000     0.024478     0.700000     0.200000     0.270970
     0.780000     0.200000     0.006408     0.800000     0.200000     0.251817
     0.890000     0.200000    -0.021167     0.900000     0.200000     0.226224
     1.000000     0.200000    -0.047042     1.000000     0.200000     0.202958
     0.000000     0.300000    -0.005338     0.000000     0.300000     0.244662
     0.090000     0.300000    -0.013419     0.100000     0.300000     0.236276
     0.180000     0.300000    -0.011753     0.200000     0.300000     0.239887
     0.270000     0.300000    -0.001533     0.300000     0.300000     0.253106
     0.360000     0.300000     0.012999     0.400000     0.300000     0.269314
     0.450000     0.300000     0.025953     0.500000     0.300000     0.280338
     0.560000     0.300000     0.031637     0.600000     0.300000     0.279775
     0.670000     0.300000     0.021205     0.700000     0.300000     0.265644
     0.780000     0.300000    -0.003296     0.800000     0.300000     0.241363
     0.890000     0.300000    -0.032848     0.900000     0.300000     0.214635
     1.000000     0.300000    -0.055338     1.000000     0.300000     0.194662
     0.000000     0.400000    -0.010665     0.000000     0.400000     0.239335
     0.090000     0.400000    -0.012315     0.100000     0.400000     0.238112
     0.180000     0.400000    -0.004562     0.200000     0.400000     0.248183
     0.270000     0.400000     0.009506     0.300000     0.400000     0.264695
     0.360000     0.400000     0.024449     0.400000     0.400000     0.279767
     0.450000     0.400000     0.034249     0.500000     0.400000     0.285665
     0.560000     0.400000     0.032741     0.600000     0.400000     0.277939
     0.670000     0.400000     0.014610     0.700000     0.400000     0.257347
     0.780000     0.400000    -0.014563     0.800000     0.400000     0.229775
     0.890000     0.400000    -0.043616     0.900000     0.400000     0.204182
     1.000000     0.400000    -0.060665     1.000000     0.400000     0.189335
     0.000000     0.500000    -0.012500     0.000000     0.500000     0.237500
     0.090000     0.500000    -0.007655     0.100000     0.500000     0.243438
     0.180000     0.500000     0.005141     0.200000     0.500000     0.258637
     0.270000     0.500000     0.021233     0.300000     0.500000     0.276283
     0.360000     0.500000     0.034548     0.400000     0.500000     0.288064
     0.450000     0.500000     0.039575     0.500000     0.500000     0.287500
     0.560000     0.500000     0.030182     0.600000     0.500000     0.272613
     0.670000     0.500000     0.005340     0.700000     0.500000     0.246894
     0.780000     0.500000    -0.026290     0.800000     0.500000     0.218186
     0.890000     0.500000    -0.052416     0.900000     0.500000     0.195885
     1.000000     0.500000    -0.062500     1.000000     0.500000     0.187500
     0.000000     0.600000    -0.010665     0.000000     0.600000     0.239335
     0.090000     0.600000     0.000104     0.100000     0.600000     0.251734
     0.180000     0.600000     0.016408     0.200000     0.600000     0.270225
     0.270000     0.600000     0.032500     0.300000     0.600000     0.286737
     0.360000     0.600000     0.042307     0.400000     0.600000     0.293390
     0.450000     0.600000     0.041411     0.500000     0.600000     0.285665
     0.560000     0.600000     0.024210     0.600000     0.600000     0.264317
     0.670000     0.600000    -0.005699     0.700000     0.600000     0.235305
     0.780000     0.600000    -0.037329     0.800000     0.600000     0.207733
     0.890000     0.600000    -0.058389     0.900000     0.600000     0.190559
     1.000000     0.600000    -0.060665     1.000000     0.600000     0.189335
     0.000000     0.700000    -0.005338     0.000000     0.700000     0.244662
     0.090000     0.700000     0.010203     0.100000     0.700000     0.262188
     0.180000     0.700000     0.028135     0.200000     0.700000     0.281814
     0.270000     0.700000     0.042203     0.300000     0.700000     0.295033
     0.360000     0.700000     0.046966     0.400000     0.700000     0.295225
     0.450000     0.700000     0.039575     0.500000     0.700000     0.280338
     0.560000     0.700000     0.015409     0.600000     0.700000     0.253863
     0.670000     0.700000    -0.017426     0.700000     0.700000     0.223717
     0.780000     0.700000    -0.046599     0.800000     0.700000     0.199436
     0.890000     0.700000    -0.060948     0.900000     0.700000     0.188724
     1.000000     0.700000    -0.055338     1.000000     0.700000     0.194662
     0.000000     0.800000     0.002958     0.000000     0.800000     0.252958
     0.090000     0.800000     0.021653     0.100000     0.800000     0.273776
     0.180000     0.800000     0.039174     0.200000     0.800000     0.292267
     0.270000     0.800000     0.049394     0.300000     0.800000     0.300359
     0.360000     0.800000     0.048070     0.400000     0.800000     0.293390
     0.450000     0.800000     0.034249     0.500000     0.800000     0.272042
     0.560000     0.800000     0.004641     0.600000     0.800000     0.242275
     0.670000     0.800000    -0.028693     0.700000     0.800000     0.213263
     0.780000     0.800000    -0.053194     0.800000     0.800000     0.194110
     0.890000     0.800000    -0.059844     0.900000     0.800000     0.190559
     1.000000     0.800000    -0.047042     1.000000     0.800000     0.202958
     0.000000     0.900000     0.013412     0.000000     0.900000     0.263412
     0.090000     0.900000     0.033333     0.100000     0.900000     0.285365
     0.180000     0.900000     0.048445     0.200000     0.900000     0.300564
     0.270000     0.900000     0.053369     0.300000     0.900000     0.302195
     0.360000     0.900000     0.045511     0.400000     0.900000     0.288064
     0.450000     0.900000     0.025953     0.500000     0.900000     0.261588
     0.560000     0.900000    -0.007039     0.600000     0.900000     0.230686
     0.670000     0.900000    -0.038397     0.700000     0.900000     0.204967
     0.780000     0.900000    -0.056467     0.800000     0.900000     0.192275
     0.890000     0.900000    -0.055184     0.900000     0.900000     0.195885
     1.000000     0.900000    -0.036588     1.000000     0.900000     0.213412
     0.000000     1.000000     0.025000     0.000000     1.000000     0.275000
     0.090000     1.000000     0.044101     0.100000     1.000000     0.295818
     0.180000     1.000000     0.055039     0.200000     1.000000     0.305890
     0.270000     1.000000     0.053737     0.300000     1.000000     0.300359
     0.360000     1.000000     0.039539     0.400000     1.000000     0.279767
     0.450000     1.000000     0.015499     0.500000     1.000000     0.250000
     0.560000     1.000000    -0.018489     0.600000     1.000000     0.220233
     0.670000     1.000000    -0.045588     0.700000     1.000000     0.199641
     0.780000     1.000000    -0.056099     0.800000     1.000000     0.194110
     0.890000     1.000000    -0.047425     0.900000     1.000000     0.204182
     1.000000     1.000000    -0.025000     1.000000     1.000000     0.225000
/

ZCORN
     0.025000     0.003914     0.003914    -0.012823    -0.012823    -0.020672    -0.020672    -0.018250
    -0.018250    -0.007677     0.092323     0.109120     0.109120     0.120135     0.120135     0.117573
     0.117573     0.100381     0.100381     0.075000     0.013412    -0.004887    -0.004887    -0.016096
    -0.016096    -0.017398    -0.017398    -0.009449    -0.009449     0.003911     0.103911     0.119219
     0.119219     0.124110     0.124110     0.113599     0.113599     0.090283     0.090283     0.063412
     0.013412    -0.004887    -0.004887    -0.016096    -0.016096    -0.017398    -0.017398    -0.009449
    -0.009449     0.003911     0.103911     0.119219     0.119219     0.124110     0.124110     0.113599
     0.113599     0.090283     0.090283     0.063412     0.002958    -0.010859    -0.010859    -0.015728
    -0.015728    -0.010804    -0.010804     0.001319     0.001319     0.015499     0.115499     0.126978
     0.126978     0.124478     0.124478     0.106408     0.106408     0.078833     0.078833     0.052958
     0.002958    -0.010859    -0.010859    -0.015728    -0.015728    -0.010804    -0.010804     0.001319
     0.001319     0.015499     0.115499     0.126978     0.126978     0.124478     0.124478     0.106408
     0.106408     0.078833     0.078833     0.052958    -0.005338    -0.013419    -0.013419    -0.011753
    -0.011753    -0.001533    -0.001533     0.012999     0.012999     0.025953     0.125953     0.131637
     0.131637     0.121205     0.121205     0.096704     0.096704     0.067152     0.067152     0.044662
    -0.005338    -0.013419    -0.013419    -0.011753    -0.011753    -0.001533    -0.001533     0.012999
     0.012999     0.025953     0.125953     0.131637     0.131637     0.121205     0.121205     0.096704
     0.096704     0.067152     0.067152     0.044662    -0.010665    -0.012315    -0.012315    -0.004562
    -0.004562     0.009506     0.009506     0.024449     0.024449     0.034249     0.134249     0.132741
     0.132741     0.114610     0.114610     0.085437     0.085437     0.056384     0.056384     0.039335
    -0.010665    -0.012315    -0.012315    -0.004562    -0.004562     0.009506     0.009506     0.024449
     0.024449     0.034249     0.134249     0.132741     0.132741     0.114610     0.114610     0.085437
     0.085437     0.056384     0.056384     0.039335    -0.012500    -0.007655    -0.007655     0.005141
     0.005141     0.021233     0.021233     0.034548     0.034548     0.039575     0.139575     0.130182
     0.130182     0.105340     0.105340     0.073710     0.073710     0.047584     0.047584     0.037500
    -0.012500    -0.007655    -0.007655     0.005141     0.005141     0.021233     0.021233     0.034548
     0.034548     0.039575     0.139575     0.130182     0.130182     0.105340     0.105340     0.073710
     0.073710     0.047584     0.047584     0.037500    -0.010665     0.000104     0.000104     0.016408
     0.016408     0.032500     0.032500     0.042307     0.042307     0.041411     0.141411     0.124210
     0.124210     0.094301     0.094301     0.062671     0.062671     0.041611     0.041611     0.039335
    -0.010665     0.000104     0.000104     0.016408     0.016408     0.032500     0.032500     0.042307
     0.042307     0.041411     0.141411     0.124210     0.124210     0.094301     0.094301     0.062671
     0.062671     0.041611     0.041611     0.039335    -0.005338     0.010203     0.010203     0.028135
     0.028135     0.042203     0.042203     0.046966     0.046966     0.039575     0.139575     0.115409
     0.115409     0.082574     0.082574     0.053401     0.053401     0.039052     0.039052     0.044662
    -0.005338     0.010203     0.010203     0.028135     0.028135     0.042203     0.042203     0.046966
     0.046966     0.039575     0.139575     0.115409     0.115409     0.082574     0.082574     0.053401
     0.053401     0.039052     0.039052     0.044662     0.002958     0.021653     0.021653     0.039174
     0.039174     0.049394     0.049394     0.048070     0.048070     0.034249     0.134249     0.104641
     0.104641     0.071307     0.071307     0.046806     0.046806     0.040156     0.040156     0.052958
     0.002958     0.021653     0.021653     0.039174     0.039174     0.049394     0.049394     0.048070
     0.048070     0.034249     0.134249     0.104641     0.104641     0.071307     0.071307     0.046806
     0.046806     0.040156     0.040156     0.052958     0.013412     0.033333     0.033333     0.048445
     0.048445     0.053369     0.053369     0.045511     0.045511     0.025953     0.125953     0.092961
     0.092961     0.061603     0.061603     0.043533     0.043533     0.044816     0.044816     0.063412
     0.013412     0.033333     0.033333     0.048445     0.048445     0.053369     0.053369     0.045511
     0.045511     0.025953     0.125953     0.092961     0.092961     0.061603     0.061603     0.043533
     0.043533     0.044816     0.044816     0.063412     0.025000     0.044101     0.044101     0.055039
     0.055039     0.053737     0.053737     0.039539     0.039539     0.015499     0.115499     0.081511
     0.081511     0.054412     0.054412     0.043901     0.043901     0.052575     0.052575     0.075000
     0.075000     0.053473     0.053473     0.036617     0.036617     0.029176     0.029176     0.032416
     0.032416     0.043807     0.143807     0.160239     0.160239     0.170390     0.170390     0.167186
     0.167186     0.149964     0.149964     0.125000     0.063412     0.044771     0.044771     0.033628
     0.033628     0.032871     0.032871     0.041595     0.041595     0.055488     0.155488     0.170025
     0.170025     0.173945     0.173945     0.162936     0.162936     0.139791     0.139791     0.113412
     0.063412     0.044771     0.044771     0.033628     0.033628     0.032871     0.032871     0.041595
     0.041595     0.055488     0.155488     0.170025     0.170025     0.173945     0.173945     0.162936
     0.162936     0.139791     0.139791     0.113412     0.052958     0.038926     0.038926     0.034291
     0.034291     0.039827     0.039827     0.052584     0.052584     0.066938     0.166938     0.177332
     0.177332     0.173871     0.173871     0.155514     0.155514     0.128309     0.128309     0.102958
     0.052958     0.038926     0.038926     0.034291     0.034291     0.039827     0.039827     0.052584
     0.052584     0.066938     0.166938     0.177332     0.177332     0.173871     0.173871     0.155514
     0.155514     0.128309     0.128309     0.102958     0.044662     0.036510     0.036510     0.038541
     0.038541     0.049362     0.049362     0.064305     0.064305     0.077037     0.177037     0.181444
     0.181444     0.170176     0.170176     0.145647     0.145647     0.116644     0.116644     0.094662
     0.044662     0.036510     0.036510     0.038541     0.038541     0.049362     0.049362     0.064305
     0.064305     0.077037     0.177037     0.181444     0.181444     0.170176     0.170176     0.145647
     0.145647     0.116644     0.116644     0.094662     0.039335     0.037761     0.037761     0.045963
     0.045963     0.060543     0.060543     0.075612     0.075612     0.084796     0.184796     0.181960
     0.181960     0.163220     0.163220     0.134302     0.134302     0.105935     0.105935     0.089335
     0.039335     0.037761     0.037761     0.045963     0.045963     0.060543     0.060543     0.075612
     0.075612     0.084796     0.184796     0.181960     0.181960     0.163220     0.163220     0.134302
     0.134302     0.105935     0.105935     0.089335     0.037500     0.042556     0.042556     0.055829
     0.055829     0.072275     0.072275     0.085398     0.085398     0.089455     0.189455     0.178829
     0.178829     0.153685     0.153685     0.122588     0.122588     0.097233     0.097233     0.087500
     0.037500     0.042556     0.042556     0.055829     0.055829     0.072275     0.072275     0.085398
     0.085398     0.089455     0.189455     0.178829     0.178829     0.153685     0.153685     0.122588
     0.122588     0.097233     0.097233     0.087500     0.039335     0.050425     0.050425     0.067175
     0.067175     0.083411     0.083411     0.092705     0.092705     0.090559     0.190559     0.172357
     0.172357     0.142504     0.142504     0.111653     0.111653     0.091388     0.091388     0.089335
     0.039335     0.050425     0.050425     0.067175     0.067175     0.083411     0.083411     0.092705
     0.092705     0.090559     0.190559     0.172357     0.172357     0.142504     0.142504     0.111653
     0.111653     0.091388     0.091388     0.089335     0.044662     0.060598     0.060598     0.078888
     0.078888     0.092859     0.092859     0.096817     0.096817     0.088000     0.188000     0.163177
     0.163177     0.130772     0.130772     0.102566     0.102566     0.088973     0.088973     0.094662
     0.044662     0.060598     0.060598     0.078888     0.078888     0.092859     0.092859     0.096817
     0.096817     0.088000     0.188000     0.163177     0.163177     0.130772     0.130772     0.102566
     0.102566     0.088973     0.088973     0.094662     0.052958     0.072079     0.072079     0.089824
     0.089824     0.099695     0.099695     0.097333     0.097333     0.082028     0.182028     0.152189
     0.152189     0.119636     0.119636     0.096217     0.096217     0.090223     0.090223     0.102958
     0.052958     0.072079     0.072079     0.089824     0.089824     0.099695     0.099695     0.097333
     0.097333     0.082028     0.182028     0.152189     0.152189     0.119636     0.119636     0.096217
     0.096217     0.090223     0.090223     0.102958     0.063412     0.083745     0.083745     0.098911
     0.098911     0.103251     0.103251     0.094202     0.094202     0.073227     0.173227     0.140468
     0.140468     0.110188     0.110188     0.093228     0.093228     0.095018     0.095018     0.113412
     0.063412     0.083745     0.083745     0.098911     0.098911     0.103251     0.103251     0.094202
     0.094202     0.073227     0.173227     0.140468     0.140468     0.110188     0.110188     0.093228
     0.093228     0.095018     0.095018     0.113412     0.075000     0.094453     0.094453     0.105260
     0.105260     0.103177     0.103177     0.087729     0.087729     0.062459     0.162459     0.129161
     0.129161     0.103352     0.103352     0.093891     0.093891     0.102887     0.102887     0.125000
     0.075000     0.053473     0.053473     0.036617     0.036617     0.029176     0.029176     0.032416
     0.032416     0.043807     0.143807     0.160239     0.160239     0.170390     0.170390     0.167186
     0.167186     0.149964     0.149964     0.125000     0.063412     0.044771     0.044771     0.033628
     0.033628     0.032871     0.032871     0.041595     0.041595     0.055488     0.155488     0.170025
     0.170025     0.173945     0.173945     0.162936     0.162936     0.139791     0.139791     0.113412
     0.063412     0.044771     0.044771     0.033628     0.033628     0.032871     0.032871     0.041595
     0.041595     0.055488     0.155488     0.170025     0.170025     0.173945     0.173945     0.162936
     0.162936     0.139791     0.139791     0.113412     0.052958     0.038926     0.038926     0.034291
     0.034291     0.039827     0.039827     0.052584     0.052584     0.066938     0.166938     0.177332
     0.177332     0.173871     0.173871     0.155514     0.155514     0.128309     0.128309     0.102958
     0.052958     0.038926     0.038926     0.034291     0.034291     0.039827     0.039827     0.052584
     0.052584     0.066938     0.166938     0.177332     0.177332     0.173871     0.173871     0.155514
     0.155514     0.128309     0.128309     0.102958     0.044662     0.036510     0.036510     0.038541
     0.038541     0.049362     0.049362     0.064305     0.064305     0.077037     0.177037     0.181444
     0.181444     0.170176     0.170176     0.145647     0.145647     0.116644     0.116644     0.094662
     0.044662     0.036510     0.036510     0.038541     0.038541     0.049362     0.049362     0.064305
     0.064305     0.077037     0.177037     0.181444     0.181444     0.170176     0.170176     0.145647
     0.145647     0.116644     0.116644     0.094662     0.039335     0.037761     0.037761     0.045963
     0.045963     0.060543     0.060543     0.075612     0.075612     0.084796     0.184796     0.181960
     0.181960     0.163220     0.163220     0.134302     0.134302     0.105935     0.105935     0.089335
     0.039335     0.037761     0.037761     0.045963     0.045963     0.060543     0.060543     0.075612
     0.075612     0.084796     0.184796     0.181960     0.181960     0.163220     0.163220     0.134302
     0.134302     0.105935     0.105935     0.089335     0.037500     0.042556     0.042556     0.055829
     0.055829     0.072275     0.072275     0.085398     0.085398     0.089455     0.189455     0.178829
     0.178829     0.153685     0.153685     0.122588     0.122588     0.097233     0.097233     0.087500
     0.037500     0.042556     0.042556     0.055829     0.055829     0.072275     0.072275     0.085398
     0.085398     0.089455     0.189455     0.178829     0.178829     0.153685     0.153685     0.122588
     0.122588     0.097233     0.097233     0.087500     0.039335     0.050425     0.050425     0.067175
     0.067175     0.083411     0.083411     0.092705     0.092705     0.090559     0.190559     0.172357
     0.172357     0.142504     0.142504     0.111653     0.111653     0.091388     0.091388     0.089335
     0.039335     0.050425     0.050425     0.067175     0.067175     0.083411     0.083411     0.092705
     0.092705     0.090559     0.190559     0.172357     0.172357     0.142504     0.142504     0.111653
     0.111653     0.091388     0.091388     0.089335     0.044662     0.060598     0.060598     0.078888
     0.078888     0.092859     0.092859     0.096817     0.096817     0.088000     0.188000     0.163177
     0.163177     0.130772     0.130772     0.102566     0.102566     0.088973     0.088973     0.094662
     0.044662     0.060598     0.060598     0.078888     0.078888     0.092859     0.092859     0.096817
     0.096817     0.088000     0.188000     0.163177     0.163177     0.130772     0.130772     0.102566
     0.102566     0.088973     0.088973     0.094662     0.052958     0.072079     0.072079     0.089824
     0.089824     0.099695     0.099695     0.097333     0.097333     0.082028     0.182028     0.152189
     0.152189     0.119636     0.119636     0.096217     0.096217     0.090223     0.090223     0.102958
     0.052958     0.072079     0.072079     0.089824     0.089824     0.099695     0.099695     0.097333
     0.097333     0.082028     0.182028     0.152189     0.152189     0.119636     0.119636     0.096217
     0.096217     0.090223     0.090223     0.102958     0.063412     0.083745     0.083745     0.098911
     0.098911     0.103251     0.103251     0.094202     0.094202     0.073227     0.173227     0.140468
     0.140468     0.110188     0.110188     0.093228     0.093228     0.095018     0.095018     0.113412
     0.063412     0.083745     0.083745     0.098911     0.098911     0.103251     0.103251     0.094202
     0.094202     0.073227     0.173227     0.140468     0.140468     0.110188     0.110188     0.093228
     0.093228     0.095018     0.095018     0.113412     0.075000     0.094453     0.094453     0.105260
     0.105260     0.103177     0.103177     0.087729     0.087729     0.062459     0.162459     0.129161
     0.129161     0.103352     0.103352     0.093891     0.093891     0.102887     0.102887     0.125000
     0.125000     0.103035     0.103035     0.086075     0.086075     0.079070     0.079070     0.083145
     0.083145     0.095326     0.195326     0.211322     0.211322     0.220601     0.220601     0.216779
     0.216779     0.199543     0.199543     0.175000     0.113412     0.094432     0.094432     0.083371
     0.083371     0.083182     0.083182     0.092680     0.092680     0.107053     0.207053     0.220770
     0.220770     0.223732     0.223732     0.212255     0.212255     0.189298     0.189298     0.163412
     0.113412     0.094432     0.094432     0.083371     0.083371     0.083182     0.083182     0.092680
     0.092680     0.107053     0.207053     0.220770     0.220770     0.223732     0.223732     0.212255
     0.212255     0.189298     0.189298     0.163412     0.102958     0.088715     0.088715     0.084329
     0.084329     0.090489     0.090489     0.103861     0.103861     0.118319     0.218319     0.227607
     0.227607     0.223217     0.223217     0.204607     0.204607     0.177787     0.177787     0.152958
     0.102958     0.088715     0.088715     0.084329     0.084329     0.090489     0.090489     0.103861
     0.103861     0.118319     0.218319     0.227607     0.227607     0.223217     0.223217     0.204607
     0.204607     0.177787     0.177787     0.152958     0.094662     0.086444     0.086444     0.088853
     0.088853     0.100275     0.100275     0.115593     0.115593     0.128023     0.228023     0.231162
     0.231162     0.219104     0.219104     0.194585     0.194585     0.166138     0.166138     0.144662
     0.094662     0.086444     0.086444     0.088853     0.088853     0.100275     0.100275     0.115593
     0.115593     0.128023     0.228023     0.231162     0.231162     0.219104     0.219104     0.194585
     0.194585     0.166138     0.166138     0.144662     0.089335     0.087842     0.087842     0.096500
     0.096500     0.111582     0.111582     0.126729     0.126729     0.135214     0.235214     0.231088
     0.231088     0.211797     0.211797     0.183168     0.183168     0.155491     0.155491     0.139335
     0.089335     0.087842     0.087842     0.096500     0.096500     0.111582     0.111582     0.126729
     0.126729     0.135214     0.235214     0.231088     0.231088     0.211797     0.211797     0.183168
     0.183168     0.155491     0.155491     0.139335     0.087500     0.092770     0.092770     0.106523
     0.106523     0.123303     0.123303     0.136177     0.136177     0.139188     0.239188     0.227393
     0.227393     0.202011     0.202011     0.171474     0.171474     0.146888     0.146888     0.137500
     0.087500     0.092770     0.092770     0.106523     0.106523     0.123303     0.123303     0.136177
     0.136177     0.139188     0.239188     0.227393     0.227393     0.202011     0.202011     0.171474
     0.171474     0.146888     0.146888     0.137500     0.089335     0.100748     0.100748     0.117940
     0.117940     0.134292     0.134292     0.143014     0.143014     0.139557     0.239557     0.220437
     0.220437     0.190704     0.190704     0.160649     0.160649     0.141171     0.141171     0.139335
     0.089335     0.100748     0.100748     0.117940     0.117940     0.134292     0.134292     0.143014
     0.143014     0.139557     0.239557     0.220437     0.220437     0.190704     0.190704     0.160649
     0.160649     0.141171     0.141171     0.139335     0.094662     0.110994     0.110994     0.129634
     0.129634     0.143471     0.143471     0.146569     0.146569     0.136284     0.236284     0.210902
     0.210902     0.178983     0.178983     0.151751     0.151751     0.138900     0.138900     0.144662
     0.094662     0.110994     0.110994     0.129634     0.129634     0.143471     0.143471     0.146569
     0.146569     0.136284     0.236284     0.210902     0.210902     0.178983     0.178983     0.151751
     0.151751     0.138900     0.138900     0.144662     0.102958     0.122504     0.122504     0.140459
     0.140459     0.149943     0.149943     0.146495     0.146495     0.129689     0.229689     0.199721
     0.199721     0.167995     0.167995     0.145652     0.145652     0.140297     0.140297     0.152958
     0.102958     0.122504     0.122504     0.140459     0.140459     0.149943     0.149943     0.146495
     0.146495     0.129689     0.229689     0.199721     0.199721     0.167995     0.167995     0.145652
     0.145652     0.140297     0.140297     0.152958     0.113412     0.134153     0.134153     0.149356
     0.149356     0.153075     0.153075     0.142800     0.142800     0.120418     0.220418     0.187989