-- One COORD value is missing, so this test should throw an
-- error: The number of COORD entries read is not correct

SPECGRID
3 3 3 1 F /

GRIDUNIT
  METRES /

COORD
 0.000 0.000 0.000 0.000 0.000 1.000
 0.500 0.000 0.000 0.500 0.000 1.000
 1.000 0.000 0.000 1.000 0.000 1.000
 1.500 0.000 0.000 1.500 0.000 1.000
 0.000 0.500 0.000 0.000 0.500 1.000
 0.500 0.500 0.000 0.500 0.500 1.000
 1.000 0.500 0.000 1.000 0.500 1.000
 1.500 0.500 0.000 1.500 0.500 1.000
 0.000 1.000 0.000 0.000 1.000 1.000
 0.500 1.000 0.000 0.500 1.000 1.000
 1.000 1.000 0.000 1.000 1.000 1.000
 1.500 1.000 0.000 1.500 1.000 1.000
 0.000 1.500 0.000 0.000 1.500 1.000
 0.500 1.500 0.000 0.500 1.500 1.000
 1.000 1.500 0.000 1.000 1.500 1.000
 1.500 1.500 0.000 1.500 1.500
/

ZCORN
0.000 0.000 0.000 0.000 0.000 0.000
0.000 0.000 0.000 0.000 0.000 0.000
0.000 0.000 0.000 0.000 0.000 0.000
0.000 0.000 0.000 0.000 0.000 0.000
0.000 0.000 0.000 0.000 0.000 0.000
0.000 0.000 0.000 0.000 0.000 0.000
0.500 0.500 0.500 0.500 0.500 0.500
0.500 0.500 0.500 0.500 0.500 0.500
0.500 0.500 0.500 0.500 0.500 0.500
0.500 0.500 0.500 0.500 0.500 0.500
0.500 0.500 0.500 0.500 0.500 0.500
0.500 0.500 0.500 0.500 0.500 0.500
0.500 0.500 0.500 0.500 0.500 0.500
0.500 0.500 0.500 0.500 0.500 0.500
0.500 0.500 0.500 0.500 0.500 0.500
0.500 0.500 0.500 0.500 0.500 0.500
0.500 0.500 0.500 0.500 0.500 0.500
0.500 0.500 0.500 0.500 0.500 0.500
1.000 1.000 1.000 1.000 1.000 1.000
1.000 1.000 1.000 1.000 1.000 1.000
1.000 1.000 1.000 1.000 1.000 1.000
1.000 1.000 1.000 1.000 1.000 1.000
1.000 1.000 1.000 1.000 1.000 1.000
1.000 1.000 1.000 1.000 1.000 1.000
1.000 1.000 1.000 1.000 1.000 1.000
1.000 1.000 1.000 1.000 1.000 1.000
1.000 1.000 1.000 1.000 1.000 1.000
1.000 1.000 1.000 1.000 1.000 1.000
1.000 1.000 1.000 1.000 1.000 1.000
1.000 1.000 1.000 1.000 1.000 1.000
1.500 1.500 1.500 1.500 1.500 1.500
1.500 1.500 1.500 1.500 1.500 1.500
1.500 1.500 1.500 1.500 1.500 1.500
1.500 1.500 1.500 1.500 1.500 1.500
1.500 1.500 1.500 1.500 1.500 1.500
1.500 1.500 1.500 1.500 1.500 1.500
/

ACTNUM
1 1 1 1 1 1 1 1 1
1 1 1 1 1 1 1 1 1
1 1 1 1 1 1 1 1 1
/

PERMX
1 2 3 4 5 6 7 8 9
1 2 3 4 5 6 7 8 9
1 2 3 4 5 6 7 8 9
/

PERMY
1 2 3 4 5 6 7 8 9
1 2 3 4 5 6 7 8 9
1 2 3 4 5 6 7 8 9
/

PERMZ
1 2 3 4 5 6 7 8 9
1 2 3 4 5 6 7 8 9
1 2 3 4 5 6 7 8 9
/

PORO
0.2 0.2 0.4 0.4 0.6 0.6 0.8 0.8 0.5
0.2 0.2 0.4 0.4 0.6 0.6 0.8 0.8 0.5
0.2 0.2 0.4 0.4 0.6 0.6 0.8 0.8 0.5
/

SATNUM
1 1 1 1 1 1 1 1 1
2 2 2 2 2 2 2 2 2
3 3 3 3 3 3 3 3 3
/
