-- 2x2x1 grid exercising the new default per-cell properties NTG, HEATCR and
-- THCONR, plus a custom MYTHING keyword that only appears when the user
-- passes --extra-keywords MYTHING.

SPECGRID
2 2 1 1 F /

GRIDUNIT
  METRES /

COORD
 0.000 0.000 0.000 0.000 0.000 1.000
 1.000 0.000 0.000 1.000 0.000 1.000
 2.000 0.000 0.000 2.000 0.000 1.000
 0.000 1.000 0.000 0.000 1.000 1.000
 1.000 1.000 0.000 1.000 1.000 1.000
 2.000 1.000 0.000 2.000 1.000 1.000
 0.000 2.000 0.000 0.000 2.000 1.000
 1.000 2.000 0.000 1.000 2.000 1.000
 2.000 2.000 0.000 2.000 2.000 1.000
/

ZCORN
0.0 0.0 0.0 0.0
0.0 0.0 0.0 0.0
0.0 0.0 0.0 0.0
0.0 0.0 0.0 0.0
1.0 1.0 1.0 1.0
1.0 1.0 1.0 1.0
1.0 1.0 1.0 1.0
1.0 1.0 1.0 1.0
/

ACTNUM
1 1 1 1
/

PORO
0.2 0.3 0.4 0.5
/

SATNUM
1 1 1 1
/

NTG
0.9 0.8 0.7 0.6
/

HEATCR
2.2e6 2.3e6 2.4e6 2.5e6
/

THCONR
2.0 2.5 3.0 3.5
/

MYTHING
11.0 12.0 13.0 14.0
/
