-- 4x3x2 grid with uniquely-valued PORO per cell.
-- Combined with --extract-i 2 3 --extract-j 1 2 --extract-k 1 1 this should
-- produce a 2x2x1 grid geometrically and per-property equivalent to
-- simple_cube_extract_ref.grdecl. PORO values are 0.<k><j><i> (1-based) so
-- you can read which cell survived the extract directly off the values.

SPECGRID
4 3 2 1 F /

GRIDUNIT
  METRES /

COORD
 0.000 0.000 0.000 0.000 0.000 2.000
 1.000 0.000 0.000 1.000 0.000 2.000
 2.000 0.000 0.000 2.000 0.000 2.000
 3.000 0.000 0.000 3.000 0.000 2.000
 4.000 0.000 0.000 4.000 0.000 2.000
 0.000 1.000 0.000 0.000 1.000 2.000
 1.000 1.000 0.000 1.000 1.000 2.000
 2.000 1.000 0.000 2.000 1.000 2.000
 3.000 1.000 0.000 3.000 1.000 2.000
 4.000 1.000 0.000 4.000 1.000 2.000
 0.000 2.000 0.000 0.000 2.000 2.000
 1.000 2.000 0.000 1.000 2.000 2.000
 2.000 2.000 0.000 2.000 2.000 2.000
 3.000 2.000 0.000 3.000 2.000 2.000
 4.000 2.000 0.000 4.000 2.000 2.000
 0.000 3.000 0.000 0.000 3.000 2.000
 1.000 3.000 0.000 1.000 3.000 2.000
 2.000 3.000 0.000 2.000 3.000 2.000
 3.000 3.000 0.000 3.000 3.000 2.000
 4.000 3.000 0.000 4.000 3.000 2.000
/

ZCORN
0.0 0.0 0.0 0.0 0.0 0.0 0.0 0.0
0.0 0.0 0.0 0.0 0.0 0.0 0.0 0.0
0.0 0.0 0.0 0.0 0.0 0.0 0.0 0.0
0.0 0.0 0.0 0.0 0.0 0.0 0.0 0.0
0.0 0.0 0.0 0.0 0.0 0.0 0.0 0.0
0.0 0.0 0.0 0.0 0.0 0.0 0.0 0.0
1.0 1.0 1.0 1.0 1.0 1.0 1.0 1.0
1.0 1.0 1.0 1.0 1.0 1.0 1.0 1.0
1.0 1.0 1.0 1.0 1.0 1.0 1.0 1.0
1.0 1.0 1.0 1.0 1.0 1.0 1.0 1.0
1.0 1.0 1.0 1.0 1.0 1.0 1.0 1.0
1.0 1.0 1.0 1.0 1.0 1.0 1.0 1.0
1.0 1.0 1.0 1.0 1.0 1.0 1.0 1.0
1.0 1.0 1.0 1.0 1.0 1.0 1.0 1.0
1.0 1.0 1.0 1.0 1.0 1.0 1.0 1.0
1.0 1.0 1.0 1.0 1.0 1.0 1.0 1.0
1.0 1.0 1.0 1.0 1.0 1.0 1.0 1.0
1.0 1.0 1.0 1.0 1.0 1.0 1.0 1.0
2.0 2.0 2.0 2.0 2.0 2.0 2.0 2.0
2.0 2.0 2.0 2.0 2.0 2.0 2.0 2.0
2.0 2.0 2.0 2.0 2.0 2.0 2.0 2.0
2.0 2.0 2.0 2.0 2.0 2.0 2.0 2.0
2.0 2.0 2.0 2.0 2.0 2.0 2.0 2.0
2.0 2.0 2.0 2.0 2.0 2.0 2.0 2.0
/

ACTNUM
1 1 1 1 1 1 1 1 1 1 1 1
1 1 1 1 1 1 1 1 1 1 1 1
/

PORO
0.111 0.112 0.113 0.114
0.121 0.122 0.123 0.124
0.131 0.132 0.133 0.134
0.211 0.212 0.213 0.214
0.221 0.222 0.223 0.224
0.231 0.232 0.233 0.234
/

SATNUM
1 1 1 1 1 1 1 1 1 1 1 1
1 1 1 1 1 1 1 1 1 1 1 1
/
