SPECGRID
3 3 3 1 F /

GRIDUNIT
  METRES /

COORD
 0.000 0.000 0.000 0.000 0.000 1.000
 0.500 0.000 0.000 0.500 0.000 1.000
 1.000 0.000 0.000 1.000 0.000 1.000
 1.500 0.000 0.000 1.500 0.000 1.000
 0.000 0.500 0.000 0.000 0.500 1.000
 0.500 0.500 0.000 0.500 0.500 1.000
 1.000 0.500 0.000 1.000 0.500 1.000
 1.500 0.500 0.000 1.500 0.500 1.000
 0.000 1.000 0.000 0.000 1.000 1.000
 0.500 1.000 0.000 0.500 1.000 1.000
 1.000 1.000 0.000 1.000 1.000 1.000
 1.500 1.000 0.000 1.500 1.000 1.000
 0.000 1.500 0.000 0.000 1.500 1.000
 0.500 1.500 0.000 0.500 1.500 1.000
 1.000 1.500 0.000 1.000 1.500 1.000
 1.500 1.500 0.000 1.500 1.500 1.000
/

INCLUDE
simple_cube_zcorn.data /

INCLUDE
simple_cube_props.data
/
