SPECGRID
3 3 3 1 F /

GRIDUNIT
  METRES /

COORD
 1.500 0.000 0.000 1.500 0.000 1.000
 1.000 0.000 0.000 1.000 0.000 1.000
 0.500 0.000 0.000 0.500 0.000 1.000
 0.000 0.000 0.000 0.000 0.000 1.000
 1.500 0.500 0.000 1.500 0.500 1.000
 1.000 0.500 0.000 1.000 0.500 1.000
 0.500 0.500 0.000 0.500 0.500 1.000
 0.000 0.500 0.000 0.000 0.500 1.000
 1.500 1.000 0.000 1.500 1.000 1.000
 1.000 1.000 0.000 1.000 1.000 1.000
 0.500 1.000 0.000 0.500 1.000 1.000
 0.000 1.000 0.000 0.000 1.000 1.000
 1.500 1.500 0.000 1.500 1.500 1.000
 1.000 1.500 0.000 1.000 1.500 1.000
 0.500 1.500 0.000 0.500 1.500 1.000
 0.000 1.500 0.000 0.000 1.500 1.000
/

ZCORN
0.000 0.000 0.000 0.000 0.000 0.000
0.000 0.000 0.000 0.000 0.000 0.000
0.000 0.000 0.000 0.000 0.000 0.000
0.000 0.000 0.000 0.000 0.000 0.000
0.000 0.000 0.000 0.000 0.000 0.000
0.000 0.000 0.000 0.000 0.000 0.000
0.500 0.500 0.500 0.500 0.500 0.500
0.500 0.500 0.500 0.500 0.500 0.500
0.500 0.500 0.500 0.500 0.500 0.500
0.500 0.500 0.500 0.500 0.500 0.500
0.500 0.500 0.500 0.500 0.500 0.500
0.500 0.500 0.500 0.500 0.500 0.500
0.500 0.500 0.500 0.500 0.500 0.500
0.500 0.500 0.500 0.500 0.500 0.500
0.500 0.500 0.500 0.500 0.500 0.500
0.500 0.500 0.500 0.500 0.500 0.500
0.500 0.500 0.500 0.500 0.500 0.500
0.500 0.500 0.500 0.500 0.500 0.500
1.000 1.000 1.000 1.000 1.000 1.000
1.000 1.000 1.000 1.000 1.000 1.000
1.000 1.000 1.000 1.000 1.000 1.000
1.000 1.000 1.000 1.000 1.000 1.000
1.000 1.000 1.000 1.000 1.000 1.000
1.000 1.000 1.000 1.000 1.000 1.000
1.000 1.000 1.000 1.000 1.000 1.000
1.000 1.000 1.000 1.000 1.000 1.000
1.000 1.000 1.000 1.000 1.000 1.000
1.000 1.000 1.000 1.000 1.000 1.000
1.000 1.000 1.000 1.000 1.000 1.000
1.000 1.000 1.000 1.000 1.000 1.000
1.500 1.500 1.500 1.500 1.500 1.500
1.500 1.500 1.500 1.500 1.500 1.500
1.500 1.500 1.500 1.500 1.500 1.500
1.500 1.500 1.500 1.500 1.500 1.500
1.500 1.500 1.500 1.500 1.500 1.500
1.500 1.500 1.500 1.500 1.500 1.500
/

ACTNUM
1 1 1 1 1 1 1 1 1
1 1 1 1 1 1 1 1 1
1 1 1 1 1 1 1 1 1
/

PERMX
3 2 1 6 5 4 9 8 7
3 2 1 6 5 4 9 8 7
3 2 1 6 5 4 9 8 7
/

PERMY
3 2 1 6 5 4 9 8 7
3 2 1 6 5 4 9 8 7
3 2 1 6 5 4 9 8 7
/

PERMZ
3 2 1 6 5 4 9 8 7
3 2 1 6 5 4 9 8 7
3 2 1 6 5 4 9 8 7
/

PORO
0.4 0.2 0.2 0.6 0.6 0.4 0.5 0.8 0.8
0.4 0.2 0.2 0.6 0.6 0.4 0.5 0.8 0.8
0.4 0.2 0.2 0.6 0.6 0.4 0.5 0.8 0.8
/

SATNUM
1 1 1 1 1 1 1 1 1
2 2 2 2 2 2 2 2 2
3 3 3 3 3 3 3 3 3
/
