SPECGRID
3 3 3 1 F /

GRIDUNIT
  METRES /

COORD
 1.500 1.500 0.000 1.500 1.500 1.000
 1.000 1.500 0.000 1.000 1.500 1.000
 0.500 1.500 0.000 0.500 1.500 1.000
 0.000 1.500 0.000 0.000 1.500 1.000
 1.500 1.000 0.000 1.500 1.000 1.000
 1.000 1.000 0.000 1.000 1.000 1.000
 0.500 1.000 0.000 0.500 1.000 1.000
 0.000 1.000 0.000 0.000 1.000 1.000
 1.500 0.500 0.000 1.500 0.500 1.000
 1.000 0.500 0.000 1.000 0.500 1.000
 0.500 0.500 0.000 0.500 0.500 1.000
 0.000 0.500 0.000 0.000 0.500 1.000
 1.500 0.000 0.000 1.500 0.000 1.000
 1.000 0.000 0.000 1.000 0.000 1.000
 0.500 0.000 0.000 0.500 0.000 1.000
 0.000 0.000 0.000 0.000 0.000 1.000
/

ZCORN
0.000 0.000 0.000 0.000 0.000 0.000
0.000 0.000 0.000 0.000 0.000 0.000
0.000 0.000 0.000 0.000 0.000 0.000
0.000 0.000 0.000 0.000 0.000 0.000
0.000 0.000 0.000 0.000 0.000 0.000
0.000 0.000 0.000 0.000 0.000 0.000
0.500 0.500 0.500 0.500 0.500 0.500
0.500 0.500 0.500 0.500 0.500 0.500
0.500 0.500 0.500 0.500 0.500 0.500
0.500 0.500 0.500 0.500 0.500 0.500
0.500 0.500 0.500 0.500 0.500 0.500
0.500 0.500 0.500 0.500 0.500 0.500
0.500 0.500 0.500 0.500 0.500 0.500
0.500 0.500 0.500 0.500 0.500 0.500
0.500 0.500 0.500 0.500 0.500 0.500
0.500 0.500 0.500 0.500 0.500 0.500
0.500 0.500 0.500 0.500 0.500 0.500
0.500 0.500 0.500 0.500 0.500 0.500
1.000 1.000 1.000 1.000 1.000 1.000
1.000 1.000 1.000 1.000 1.000 1.000
1.000 1.000 1.000 1.000 1.000 1.000
1.000 1.000 1.000 1.000 1.000 1.000
1.000 1.000 1.000 1.000 1.000 1.000
1.000 1.000 1.000 1.000 1.000 1.000
1.000 1.000 1.000 1.000 1.000 1.000
1.000 1.000 1.000 1.000 1.000 1.000
1.000 1.000 1.000 1.000 1.000 1.000
1.000 1.000 1.000 1.000 1.000 1.000
1.000 1.000 1.000 1.000 1.000 1.000
1.000 1.000 1.000 1.000 1.000 1.000
1.500 1.500 1.500 1.500 1.500 1.500
1.500 1.500 1.500 1.500 1.500 1.500
1.500 1.500 1.500 1.500 1.500 1.500
1.500 1.500 1.500 1.500 1.500 1.500
1.500 1.500 1.500 1.500 1.500 1.500
1.500 1.500 1.500 1.500 1.500 1.500
/

ACTNUM
1 1 1 1 1 1 1 1 1
1 1 1 1 1 1 1 1 1
1 1 1 1 1 1 1 1 1
/

PERMX
9 8 7 6 5 4 3 2 1
9 8 7 6 5 4 3 2 1
9 8 7 6 5 4 3 2 1
/

PERMY
9 8 7 6 5 4 3 2 1
9 8 7 6 5 4 3 2 1
9 8 7 6 5 4 3 2 1
/

PERMZ
9 8 7 6 5 4 3 2 1
9 8 7 6 5 4 3 2 1
9 8 7 6 5 4 3 2 1
/

PORO
0.5 0.8 0.8 0.6 0.6 0.4 0.4 0.2 0.2
0.5 0.8 0.8 0.6 0.6 0.4 0.4 0.2 0.2
0.5 0.8 0.8 0.6 0.6 0.4 0.4 0.2 0.2
/

SATNUM
1 1 1 1 1 1 1 1 1
2 2 2 2 2 2 2 2 2
3 3 3 3 3 3 3 3 3
/
