-- This Eclipse file is identical to simple_cube.grdecl, except that it uses
-- the shorthand notation N*value in the properties, where N is the number of
-- instances of the value expected

SPECGRID
3 3 3 1 F /

GRIDUNIT
  METRES /

COORD
 0.000 0.000 0.000 0.000 0.000 1.000
 0.500 0.000 0.000 0.500 0.000 1.000
 1.000 0.000 0.000 1.000 0.000 1.000
 1.500 0.000 0.000 1.500 0.000 1.000
 0.000 0.500 0.000 0.000 0.500 1.000
 0.500 0.500 0.000 0.500 0.500 1.000
 1.000 0.500 0.000 1.000 0.500 1.000
 1.500 0.500 0.000 1.500 0.500 1.000
 0.000 1.000 0.000 0.000 1.000 1.000
 0.500 1.000 0.000 0.500 1.000 1.000
 1.000 1.000 0.000 1.000 1.000 1.000
 1.500 1.000 0.000 1.500 1.000 1.000
 0.000 1.500 0.000 0.000 1.500 1.000
 0.500 1.500 0.000 0.500 1.500 1.000
 1.000 1.500 0.000 1.000 1.500 1.000
 1.500 1.500 0.000 1.500 1.500 1.000
/

ZCORN
36*0.000 72*0.500 72*1.000 36*1.500
/

ACTNUM
27*1
/

PERMX
1 2 3 4 5 6 7 8 9
1 2 3 4 5 6 7 8 9
1 2 3 4 5 6 7 8 9
/

PERMY
1 2 3 4 5 6 7 8 9
1 2 3 4 5 6 7 8 9
1 2 3 4 5 6 7 8 9
/

PERMZ
1 2 3 4 5 6 7 8 9
1 2 3 4 5 6 7 8 9
1 2 3 4 5 6 7 8 9
/

PORO
2*0.2 2*0.4 2*0.6 2*0.8 0.5
2*0.2 2*0.4 2*0.6 2*0.8 0.5
2*0.2 2*0.4 2*0.6 2*0.8 0.5
/

SATNUM
9*1
9*2
9*3
/
