SPECGRID
3 3 3 1 F /

GRIDUNIT
  METRES /

COORD
 0.000 1.500 0.000 0.000 1.500 1.000
 0.500 1.500 0.000 0.500 1.500 1.000
 1.000 1.500 0.000 1.000 1.500 1.000
 1.500 1.500 0.000 1.500 1.500 1.000
 0.000 1.000 0.000 0.000 1.000 1.000
 0.500 1.000 0.000 0.500 1.000 1.000
 1.000 1.000 0.000 1.000 1.000 1.000
 1.500 1.000 0.000 1.500 1.000 1.000
 0.000 0.500 0.000 0.000 0.500 1.000
 0.500 0.500 0.000 0.500 0.500 1.000
 1.000 0.500 0.000 1.000 0.500 1.000
 1.500 0.500 0.000 1.500 0.500 1.000
 0.000 0.000 0.000 0.000 0.000 1.000
 0.500 0.000 0.000 0.500 0.000 1.000
 1.000 0.000 0.000 1.000 0.000 1.000
 1.500 0.000 0.000 1.500 0.000 1.000
/

ZCORN
0.000 0.000 0.000 0.000 0.000 0.000
0.000 0.000 0.000 0.000 0.000 0.000
0.000 0.000 0.000 0.000 0.000 0.000
0.000 0.000 0.000 0.000 0.000 0.000
0.000 0.000 0.000 0.000 0.000 0.000
0.000 0.000 0.000 0.000 0.000 0.000
0.500 0.500 0.500 0.500 0.500 0.500
0.500 0.500 0.500 0.500 0.500 0.500
0.500 0.500 0.500 0.500 0.500 0.500
0.500 0.500 0.500 0.500 0.500 0.500
0.500 0.500 0.500 0.500 0.500 0.500
0.500 0.500 0.500 0.500 0.500 0.500
0.500 0.500 0.500 0.500 0.500 0.500
0.500 0.500 0.500 0.500 0.500 0.500
0.500 0.500 0.500 0.500 0.500 0.500
0.500 0.500 0.500 0.500 0.500 0.500
0.500 0.500 0.500 0.500 0.500 0.500
0.500 0.500 0.500 0.500 0.500 0.500
1.000 1.000 1.000 1.000 1.000 1.000
1.000 1.000 1.000 1.000 1.000 1.000
1.000 1.000 1.000 1.000 1.000 1.000
1.000 1.000 1.000 1.000 1.000 1.000
1.000 1.000 1.000 1.000 1.000 1.000
1.000 1.000 1.000 1.000 1.000 1.000
1.000 1.000 1.000 1.000 1.000 1.000
1.000 1.000 1.000 1.000 1.000 1.000
1.000 1.000 1.000 1.000 1.000 1.000
1.000 1.000 1.000 1.000 1.000 1.000
1.000 1.000 1.000 1.000 1.000 1.000
1.000 1.000 1.000 1.000 1.000 1.000
1.500 1.500 1.500 1.500 1.500 1.500
1.500 1.500 1.500 1.500 1.500 1.500
1.500 1.500 1.500 1.500 1.500 1.500
1.500 1.500 1.500 1.500 1.500 1.500
1.500 1.500 1.500 1.500 1.500 1.500
1.500 1.500 1.500 1.500 1.500 1.500
/

ACTNUM
1 1 1 1 1 1 1 1 1
1 1 1 1 1 1 1 1 1
1 1 1 1 1 1 1 1 1
/

PERMX
7 8 9 4 5 6 1 2 3
7 8 9 4 5 6 1 2 3
7 8 9 4 5 6 1 2 3
/

PERMY
7 8 9 4 5 6 1 2 3
7 8 9 4 5 6 1 2 3
7 8 9 4 5 6 1 2 3
/

PERMZ
7 8 9 4 5 6 1 2 3
7 8 9 4 5 6 1 2 3
7 8 9 4 5 6 1 2 3
/

PORO
0.8 0.8 0.5 0.4 0.6 0.6 0.2 0.2 0.4
0.8 0.8 0.5 0.4 0.6 0.6 0.2 0.2 0.4
0.8 0.8 0.5 0.4 0.6 0.6 0.2 0.2 0.4
/

SATNUM
1 1 1 1 1 1 1 1 1
2 2 2 2 2 2 2 2 2
3 3 3 3 3 3 3 3 3
/
